# vtk DataFile Version 4.2
file created by MooNMD
ASCII
DATASET UNSTRUCTURED_GRID

POINTS 1123 double
-6.268753e-01 -6.681413e-01 -1.573104e+00
-5.235581e-01 2.853717e-01 9.326828e-01
3.342998e-01 -5.538294e-02 1.007035e+00
1.103236e+00 9.351206e-01 1.563579e+00
1.529292e+00 -9.456927e-01 1.138202e+00
-1.565158e+00 -1.565158e+00 1.350403e+00
-4.566611e-01 7.824769e-01 1.110997e+00
-1.623548e+00 5.193644e-01 -1.618574e+00
1.582885e+00 1.137339e+00 -1.107521e+00
8.696814e-01 1.076950e+00 8.762657e-01
-1.263013e+00 5.726544e-02 2.247705e-01
1.082283e+00 2.635404e-02 3.128911e-01
7.422650e-02 1.030935e+00 -5.113555e-01
8.524891e-01 -1.018549e+00 -1.028876e+00
-9.453209e-01 1.118953e+00 -1.565256e+00
-7.763272e-01 1.145217e+00 -6.241415e-01
1.554622e+00 2.578083e-01 1.241868e+00
1.600003e+00 -1.892646e-01 -1.106097e+00
4.459889e-01 -4.452790e-01 -5.795867e-01
-1.129218e+00 -7.850942e-01 9.671685e-01
-7.945545e-01 -1.219030e-01 -8.359788e-01
1.916986e-01 1.474481e-01 -1.689377e+00
1.036036e+00 9.543565e-01 -1.579382e+00
-7.652181e-01 1.604708e+00 -5.476496e-01
5.607584e-01 -1.552969e+00 6.468801e-01
-2.112552e-01 2.368594e-01 -2.109829e-01
-2.409312e-01 1.596455e+00 -7.851903e-01
1.025886e+00 -4.643886e-01 -4.760499e-02
7.716279e-01 -4.929612e-01 1.589609e+00
-1.006624e+00 -9.470297e-01 1.578585e+00
9.254738e-01 -1.543756e+00 2.896814e-01
9.474469e-01 -1.578693e+00 1.006443e+00
-1.332680e-01 3.512609e-01 1.537319e+00
-1.539503e+00 -9.316059e-01 2.926199e-01
-1.556882e+00 3.235713e-01 -9.221618e-01
-3.497020e-01 2.652947e-02 -1.468213e+00
-9.669754e-01 -1.520671e+00 1.104281e+00
-9.702160e-01 -3.659381e-01 9.711157e-01
1.555964e+00 -2.131183e-01 -1.552319e+00
-1.549404e+00 2.384534e-01 1.549404e+00
2.637825e-01 1.236005e-01 -1.303099e+00
1.600556e+00 7.828264e-01 -5.467263e-01
1.209216e+00 1.564013e+00 3.023823e-01
2.376028e-01 7.623439e-01 1.831658e-01
9.029915e-01 1.093302e+00 -8.536702e-01
-2.908994e-01 1.518226e+00 5.894819e-01
9.569340e-01 1.651681e-01 7.127934e-01
3.461856e-01 -9.257117e-01 9.984003e-01
-3.164558e-01 1.415212e+00 1.569029e+00
-1.597918e+00 -7.786216e-01 -5.658527e-01
8.265856e-01 -6.069383e-01 1.158524e+00
-2.236152e-01 -2.274580e-01 -2.165210e-01
7.719000e-01 -1.600077e+00 -5.635273e-01
2.248387e-01 -1.151844e+00 1.563895e+00
-1.420326e+00 1.033635e+00 1.565810e+00
1.114863e+00 3.311140e-01 1.568627e+00
-7.326228e-01 -1.609955e+00 -1.612799e+00
1.609938e+00 -7.325968e-01 -1.612781e+00
-3.063572e-01 -1.553620e+00 -9.249065e-01
-4.727704e-01 1.605880e+00 1.174026e+00
-5.217815e-01 -1.456424e+00 9.009955e-01
-1.128378e+00 -3.597360e-01 -1.245411e-01
1.032400e+00 -7.869620e-01 -4.187891e-01
-1.536034e+00 9.720200e-01 1.104243e+00
-7.057932e-01 -4.201875e-01 -1.089841e+00
-1.118433e-01 -1.566808e+00 -4.279391e-01
1.765421e-01 -1.519024e+00 4.089102e-01
-1.135128e+00 -2.454398e-01 -1.587528e+00
-3.733933e-01 1.094052e+00 -1.377812e-01
1.409981e+00 -9.905440e-02 -2.883374e-01
-1.532002e+00 -1.274780e+00 -1.548861e+00
-1.555354e+00 -1.158831e+00 1.555354e+00
1.271163e+00 -1.530813e+00 -1.547974e+00
-1.528032e+00 9.479775e-01 -1.528605e+00
-9.242543e-01 2.176829e-01 -1.501946e+00
-2.391415e-01 1.244480e+00 -1.561239e+00
9.938833e-01 -9.159527e-01 -1.568725e+00
6.574017e-01 1.089730e+00 1.584956e+00
-2.154480e-01 1.971621e-01 6.749807e-01
1.596906e+00 -1.597275e+00 -7.204461e-01
-1.597253e+00 -1.596884e+00 -7.204216e-01
-1.596858e+00 1.597227e+00 -7.203913e-01
1.000188e+00 -8.891092e-01 1.550007e+00
-2.967005e-01 1.028395e+00 7.706611e-01
-9.065817e-01 1.487910e+00 4.638750e-01
1.561632e+00 -1.153570e+00 -1.552328e+00
-1.153574e+00 -1.561615e+00 -1.552311e+00
9.218505e-01 8.386107e-01 5.012788e-01
-1.104070e+00 8.833201e-01 -5.500232e-01
-1.077696e+00 -1.004269e+00 -8.105777e-01
-8.988100e-01 -1.003681e+00 -1.568093e+00
-1.520729e+00 8.744124e-02 -4.398523e-01
3.618071e-01 -1.579166e+00 1.475857e+00
9.232564e-01 1.540342e+00 9.979114e-01
2.003246e-01 -4.012376e-01 1.497281e+00
1.229131e+00 1.527447e+00 1.535871e+00
-1.015778e-01 -3.364351e-01 -9.329961e-01
-9.041029e-01 1.010809e+00 4.144803e-01
-1.619919e-01 -2.635226e-01 2.525618e-01
9.655109e-01 3.836917e-01 2.694866e-02
1.546007e+00 1.287314e+00 2.450939e-01
-8.867199e-01 6.540467e-01 1.170300e+00
-1.246085e+00 1.499672e+00 -1.545950e+00
6.301307e-01 2.041240e-01 1.529772e+00
2.501377e-01 2.075078e-01 -2.542630e-01
1.544555e-01 -2.395284e-01 -2.909311e-01
9.975985e-01 6.244131e-01 9.119756e-01
2.489711e-01 4.048454e-01 -9.369769e-01
1.538487e+00 1.145813e+00 1.538487e+00
1.134181e-01 1.564319e+00 -1.027997e+00
1.894421e-01 1.029609e+00 1.486326e+00
1.963836e-01 -1.130439e+00 -1.571531e+00
-1.092229e+00 6.507558e-01 -9.489484e-01
1.465285e+00 -1.514419e-01 9.958297e-01
1.191233e-01 1.526439e+00 9.391949e-01
-1.476292e+00 3.485171e-01 9.442444e-01
1.165574e-01 8.886225e-01 9.629767e-01
-1.142412e+00 -1.534539e+00 1.534539e+00
-2.572105e-01 -3.792943e-01 8.896531e-01
1.518338e+00 -8.351536e-01 2.991551e-01
1.100797e+00 4.146318e-01 -9.059234e-01
-2.220382e-01 7.706084e-01 1.542678e+00
-4.724802e-01 -3.421261e-01 -7.407535e-01
-6.521965e-02 -1.508052e+00 8.021913e-01
2.340038e-01 -2.782115e-01 2.035020e-01
-7.890987e-01 -7.764100e-01 2.895345e-01
-7.679258e-01 -1.647804e-01 1.952565e-01
1.530358e+00 1.530358e+00 1.147791e+00
8.550159e-01 -1.163577e+00 -5.859437e-01
-2.871684e-01 4.253418e-01 -6.538151e-01
3.101537e-01 -2.259772e-01 -8.824757e-01
-2.827937e-01 2.590107e-01 1.813222e-01
-1.549656e+00 -2.226574e-02 6.178487e-01
1.537737e+00 -1.527983e+00 -1.153470e+00
-1.527980e+00 -1.537734e+00 -1.153470e+00
-1.537731e+00 1.527977e+00 -1.153471e+00
-4.271997e-02 -7.865981e-01 1.499684e+00
-9.714976e-01 -7.726857e-01 -3.294094e-01
8.611940e-01 1.514365e+00 3.839742e-02
-9.670128e-01 3.258836e-01 1.506384e+00
7.597708e-01 -7.783960e-01 2.774742e-01
-7.880091e-01 -1.368387e-01 1.427637e+00
2.359924e-01 -8.343664e-01 2.205709e-01
-7.826607e-01 -1.547218e+00 2.378447e-01
-1.547273e+00 7.824111e-01 2.379548e-01
1.521812e+00 -1.521812e+00 1.410104e+00
-1.521796e+00 1.521796e+00 1.410138e+00
9.989277e-01 -1.112633e-01 1.522626e+00
-3.046678e-01 -1.077388e+00 -1.528684e+00
-3.825808e-01 1.099608e+00 -9.066928e-01
-7.696032e-01 3.165193e-01 -9.177628e-01
-1.100661e+00 -3.965053e-01 -9.251753e-01
9.306850e-01 -2.618349e-01 -1.521006e+00
9.998309e-01 1.512505e+00 -6.725602e-01
-1.507288e+00 8.591558e-01 -3.259721e-01
-8.595095e-01 -1.507265e+00 -3.259682e-01
1.507223e+00 -8.597336e-01 -3.259354e-01
1.372022e-01 -1.493469e+00 -8.381503e-01
6.207615e-01 4.853796e-01 4.315405e-01
1.519741e+00 1.399385e+00 -1.519741e+00
-7.254332e-01 -8.774213e-01 1.215211e+00
1.567072e+00 -7.410701e-01 1.567072e+00
-8.915849e-01 3.042051e-01 7.501320e-01
-1.520910e+00 1.402096e+00 9.039317e-01
1.520896e+00 -1.402097e+00 9.039292e-01
3.984760e-01 -1.106110e+00 -9.173549e-01
3.179694e-01 8.708926e-01 -8.004954e-01
-2.913606e-01 -8.567458e-01 7.649382e-01
-1.486396e+00 -1.484212e+00 9.094419e-01
5.569511e-01 3.852766e-01 -4.652780e-01
1.520221e+00 3.092414e-01 7.982911e-01
7.400432e-01 1.564141e+00 1.564141e+00
-1.425805e-01 8.226749e-01 -1.465681e+00
2.662175e-01 2.489271e-01 2.519721e-01
8.120189e-01 1.551604e+00 -1.378254e+00
-1.534948e+00 1.342544e-01 -1.529097e+00
-4.174629e-01 7.966523e-01 3.043772e-01
7.562264e-01 -2.889258e-01 -8.602587e-01
7.453093e-01 -1.306421e+00 1.526003e+00
-1.528723e+00 -7.486616e-01 1.312232e+00
1.431647e+00 -9.583066e-03 -7.306057e-01
2.023873e-01 3.043425e-01 7.691451e-01
6.346351e-01 -9.865579e-01 -1.436972e-01
-1.471924e-02 -1.132893e+00 -5.707760e-01
-1.496497e+00 -1.163439e-01 -8.502308e-01
1.246519e-01 1.513976e+00 1.513976e+00
-7.263856e-01 8.932371e-01 -2.842722e-01
-7.074550e-01 -1.911641e-01 -1.517391e+00
8.320562e-01 -2.422223e-01 8.505121e-01
1.517434e+00 -9.395715e-02 1.517434e+00
-1.269441e-01 -1.532974e+00 -1.526918e+00
7.290376e-01 1.886369e-01 -1.503725e+00
-2.860035e-01 -7.203783e-01 -8.855515e-01
1.510756e+00 -1.512484e+00 -9.266330e-02
-1.512475e+00 -1.510749e+00 -9.257823e-02
-1.510740e+00 1.512465e+00 -9.248490e-02
-1.035206e-01 -1.495637e+00 1.497566e+00
-1.485744e+00 -2.014305e-01 1.404850e+00
1.481848e+00 -8.982897e-01 -8.296415e-01
-8.981562e-01 -1.481766e+00 -8.295745e-01
-1.481612e+00 8.978963e-01 -8.294642e-01
-1.485624e+00 -9.722890e-01 7.698823e-01
-7.581889e-01 1.506320e+00 1.506320e+00
1.548911e+00 1.548496e+00 -7.345116e-01
3.674963e-01 1.502295e+00 2.449104e-02
-3.236181e-01 -8.518366e-01 2.751093e-01
-4.582373e-01 -3.854088e-01 4.956473e-01
3.599522e-01 -3.462699e-01 7.298511e-01
1.470383e+00 8.830342e-01 -1.481414e+00
-1.093794e+00 1.746246e-02 -5.926754e-01
-9.368135e-01 6.804606e-01 -1.510632e+00
-5.048857e-02 3.363899e-01 -1.443162e+00
8.949539e-01 -1.247387e+00 6.652517e-01
9.074341e-01 -6.358876e-01 -1.199402e+00
-6.197728e-01 -9.051163e-01 -1.196752e+00
1.280898e-01 1.509882e+00 -1.503434e+00
-3.115471e-01 -2.194879e-02 1.424659e+00
4.453437e-01 8.423400e-01 -3.454309e-01
-7.628364e-01 1.517977e+00 -1.468268e+00
-8.446299e-01 4.080904e-01 -4.056178e-01
-1.454582e+00 -8.078312e-01 -1.510648e+00
8.056304e-01 -3.005453e-01 2.727405e-01
1.458789e+00 6.606850e-01 -5.705352e-03
1.426840e+00 8.246998e-01 7.717870e-01
8.007756e-01 -1.470351e+00 -1.505742e+00
1.440049e+00 1.438759e+00 -1.722535e-01
1.477317e+00 1.162504e-01 1.030518e-01
-8.173436e-01 5.141073e-01 3.008753e-01
1.143474e-01 -6.594342e-01 -1.467049e+00
-4.787702e-01 -5.872110e-02 -1.075950e+00
7.973763e-01 -4.054563e-01 -3.973030e-01
-3.872976e-01 -1.426593e+00 -5.027860e-02
1.557200e-01 -1.495715e+00 -5.180915e-02
-1.426294e+00 3.870874e-01 -5.006319e-02
-1.495648e+00 -1.557660e-01 -5.159052e-02
-1.557492e-01 1.495629e+00 -5.167055e-02
1.205282e-01 -1.094946e+00 5.828615e-01
1.473920e+00 2.245694e-01 -1.415822e+00
-4.340316e-01 -7.991843e-01 -3.668908e-01
-2.731958e-01 8.193005e-01 -4.553687e-01
-7.940383e-01 -3.252835e-01 -3.869203e-01
6.185202e-01 1.066167e+00 -1.450848e+00
-1.791539e-01 5.101107e-01 9.338208e-01
2.400916e-02 4.947229e-01 -5.747359e-02
[...]
POINT_DATA 1123
SCALARS X0 double
LOOKUP_TABLE default
-6.268753e-01
-5.235581e-01
3.342998e-01
1.103236e+00
1.529292e+00
-1.565158e+00
-4.566611e-01
-1.623548e+00
1.582885e+00
8.696814e-01
-1.263013e+00
1.082283e+00
7.422650e-02
8.524891e-01
-9.453209e-01
-7.763272e-01
1.554622e+00
1.600003e+00
4.459889e-01
-1.129218e+00
-7.945545e-01
1.916986e-01
1.036036e+00
-7.652181e-01
5.607584e-01
-2.112552e-01
-2.409312e-01
1.025886e+00
7.716279e-01
-1.006624e+00
9.254738e-01
9.474469e-01
-1.332680e-01
-1.539503e+00
-1.556882e+00
-3.497020e-01
-9.669754e-01
-9.702160e-01
1.555964e+00
-1.549404e+00
2.637825e-01
1.600556e+00
1.209216e+00
2.376028e-01
9.029915e-01
-2.908994e-01
9.569340e-01
3.461856e-01
-3.164558e-01
-1.597918e+00
8.265856e-01
-2.236152e-01
7.719000e-01
2.248387e-01
-1.420326e+00
1.114863e+00
-7.326228e-01
1.609938e+00
-3.063572e-01
-4.727704e-01
-5.217815e-01
-1.128378e+00
1.032400e+00
-1.536034e+00
-7.057932e-01
-1.118433e-01
1.765421e-01
-1.135128e+00
-3.733933e-01
1.409981e+00
-1.532002e+00
-1.555354e+00
1.271163e+00
-1.528032e+00
-9.242543e-01
-2.391415e-01
9.938833e-01
6.574017e-01
-2.154480e-01
1.596906e+00
-1.597253e+00
-1.596858e+00
1.000188e+00
-2.967005e-01
-9.065817e-01
1.561632e+00
-1.153574e+00
9.218505e-01
-1.104070e+00
-1.077696e+00
-8.988100e-01
-1.520729e+00
3.618071e-01
9.232564e-01
2.003246e-01
1.229131e+00
-1.015778e-01
-9.041029e-01
-1.619919e-01
9.655109e-01
1.546007e+00
-8.867199e-01
-1.246085e+00
6.301307e-01
2.501377e-01
1.544555e-01
9.975985e-01
2.489711e-01
1.538487e+00
1.134181e-01
1.894421e-01
1.963836e-01
-1.092229e+00
1.465285e+00
1.191233e-01
-1.476292e+00
1.165574e-01
-1.142412e+00
-2.572105e-01
1.518338e+00
1.100797e+00
-2.220382e-01
-4.724802e-01
-6.521965e-02
2.340038e-01
-7.890987e-01
-7.679258e-01
1.530358e+00
8.550159e-01
-2.871684e-01
3.101537e-01
-2.827937e-01
-1.549656e+00
1.537737e+00
-1.527980e+00
-1.537731e+00
-4.271997e-02
-9.714976e-01
8.611940e-01
-9.670128e-01
7.597708e-01
-7.880091e-01
2.359924e-01
-7.826607e-01
-1.547273e+00
1.521812e+00
-1.521796e+00
9.989277e-01
-3.046678e-01
-3.825808e-01
-7.696032e-01
-1.100661e+00
9.306850e-01
9.998309e-01
-1.507288e+00
-8.595095e-01
1.507223e+00
1.372022e-01
6.207615e-01
1.519741e+00
-7.254332e-01
1.567072e+00
-8.915849e-01
-1.520910e+00
1.520896e+00
3.984760e-01
3.179694e-01
-2.913606e-01
-1.486396e+00
5.569511e-01
1.520221e+00
7.400432e-01
-1.425805e-01
2.662175e-01
8.120189e-01
-1.534948e+00
-4.174629e-01
7.562264e-01
7.453093e-01
-1.528723e+00
1.431647e+00
2.023873e-01
6.346351e-01
-1.471924e-02
-1.496497e+00
1.246519e-01
-7.263856e-01
-7.074550e-01
8.320562e-01
1.517434e+00
-1.269441e-01
7.290376e-01
-2.860035e-01
1.510756e+00
-1.512475e+00
-1.510740e+00
-1.035206e-01
-1.485744e+00
1.481848e+00
-8.981562e-01
-1.481612e+00
-1.485624e+00
-7.581889e-01
1.548911e+00
3.674963e-01
-3.236181e-01
-4.582373e-01
3.599522e-01
1.470383e+00
-1.093794e+00
-9.368135e-01
-5.048857e-02
8.949539e-01
9.074341e-01
-6.197728e-01
1.280898e-01
-3.115471e-01
4.453437e-01
-7.628364e-01
-8.446299e-01
-1.454582e+00
8.056304e-01
1.458789e+00
1.426840e+00
8.007756e-01
1.440049e+00
1.477317e+00
-8.173436e-01
1.143474e-01
-4.787702e-01
7.973763e-01
-3.872976e-01
1.557200e-01
-1.426294e+00
-1.495648e+00
-1.557492e-01
1.205282e-01
1.473920e+00
-4.340316e-01
-2.731958e-01
-7.940383e-01
6.185202e-01
-1.791539e-01
2.400916e-02
2.824566e-01
-1.060058e+00
-3.149423e-01
-1.242450e+00
-9.066210e-01
-8.896851e-01
-1.414379e+00
8.898390e-01
9.512149e-01
1.458545e+00
9.631128e-01
-2.285566e-02
5.042389e-01
1.406813e+00
-4.967519e-01
1.438770e+00
5.674236e-01
1.857826e-01
3.164546e-01
1.397146e+00
-4.332668e-02
-6.572729e-01
1.280088e+00
-1.458946e+00
-6.024742e-01
6.102063e-02
-7.795424e-01
5.607743e-01
-1.216339e-01
1.498736e-01
1.708165e-01
3.209683e-02
-6.612707e-01
7.584785e-01
-1.426995e+00
-1.393471e+00
5.501158e-01
6.943542e-01
5.338845e-01
1.053223e-01
7.937411e-01
-6.111723e-01
-1.349839e+00
-5.589634e-01
1.410268e+00
-1.410228e+00
5.905626e-01
5.377261e-01
-1.064386e+00
5.127703e-01
1.308777e+00
-1.308753e+00
-1.308722e+00
1.258682e+00
1.051449e+00
-5.695836e-01
-9.926934e-01
5.833581e-01
1.367357e+00
-1.367132e+00
-1.367114e+00
7.930684e-02
1.250090e+00
-4.695895e-01
1.306738e+00
4.200570e-01
-1.306807e+00
1.337463e+00
-1.337434e+00
-4.200542e-01
1.708992e-01
-5.046106e-01
-4.210230e-01
-1.269753e+00
5.336039e-01
-5.340063e-01
3.861175e-01
-5.298061e-01
-1.294000e+00
-3.879196e-01
6.666760e-01
4.939557e-01
1.297238e-01
5.664561e-01
-3.424163e-01
1.172820e+00
-5.362559e-01
1.238590e+00
-1.703900e-02
4.478484e-01
1.146099e+00
-1.217793e+00
-1.146115e+00
1.217695e+00
1.137309e+00
-1.137310e+00
-1.217639e+00
-4.727735e-01
-1.019883e-01
4.802978e-01
5.273406e-01
-5.317598e-01
-5.501791e-01
1.184196e+00
-1.682873e-01
-1.460695e-03
-5.227705e-02
-1.110472e+00
5.643898e-01
-5.192442e-02
-1.109136e+00
1.109091e+00
5.168421e-02
1.126098e+00
-1.125031e+00
-9.195752e-01
1.124778e+00
1.123862e+00
-4.678036e-02
1.001255e+00
-1.001060e+00
4.674355e-02
-6.399748e-02
2.902862e-03
6.828512e-01
-7.503032e-01
5.482664e-01
-6.833114e-01
6.824561e-01
7.494586e-01
-7.494486e-01
-6.826778e-01
1.807102e-04
-6.677360e-01
1.125395e+00
6.677360e-01
-1.125395e+00
-2.960080e-01
1.269586e+00
2.960080e-01
-1.269586e+00
2.435649e-01
1.326279e+00
-2.435649e-01
-1.326279e+00
-3.531578e-02
7.940829e-01
3.533651e-02
-7.941011e-01
-1.280407e+00
1.680114e+00
1.280407e+00
-1.680114e+00
-1.680114e+00
1.280407e+00
1.680114e+00
-1.280407e+00
-1.712060e+00
-5.752557e-01
1.712060e+00
5.752557e-01
-1.734421e+00
5.992871e-01
1.734421e+00
-5.992871e-01
-6.153090e-01
5.877711e-01
6.153090e-01
-5.877711e-01
4.383405e-02
3.515134e-01
-4.349268e-02
-3.518122e-01
-1.205061e+00
9.111753e-01
1.205061e+00
-9.111753e-01
-9.480946e-01
1.198466e+00
9.480946e-01
-1.198466e+00
-1.667301e+00
2.773009e-01
1.667301e+00
-2.773009e-01
-1.600488e+00
1.600488e+00
1.600488e+00
-1.600488e+00
-9.914229e-01
4.202464e-01
9.914229e-01
-4.202464e-01
-4.164825e-01
9.811319e-01
4.164825e-01
-9.811319e-01
-9.611944e-01
1.602438e+00
9.611944e-01
-1.602438e+00
-1.609339e+00
9.562944e-01
1.609339e+00
-9.562944e-01
-1.562400e+00
-1.522435e-01
1.562400e+00
1.522435e-01
-6.381115e-01
2.736511e-01
6.381115e-01
-2.736511e-01
-2.880435e-01
5.442558e-01
2.880435e-01
-5.442558e-01
-1.395464e+00
-5.628405e-01
1.395464e+00
5.628405e-01
-1.395464e+00
5.628405e-01
1.395464e+00
-5.628405e-01
-1.317989e+00
-1.317989e+00
1.317989e+00
1.317989e+00
-2.733218e-02
1.157056e+00
2.733218e-02
-1.157056e+00
-8.078780e-01
8.745578e-01
8.078780e-01
-8.745578e-01
0.000000e+00
-6.677360e-01
1.125395e+00
6.677360e-01
-1.125395e+00
-2.960080e-01
1.269586e+00
2.960080e-01
-1.269586e+00
2.435649e-01
1.326279e+00
-2.435649e-01
-1.326279e+00
-3.531578e-02
7.940829e-01
3.533651e-02
-7.941011e-01
-1.280407e+00
1.680114e+00
1.280407e+00
-1.680114e+00
-1.680114e+00
1.280407e+00
1.680114e+00
-1.280407e+00
-1.712060e+00
-5.752557e-01
1.712060e+00
5.752557e-01
-1.734421e+00
5.992871e-01
1.734421e+00
-5.992871e-01
-6.153090e-01
5.877711e-01
6.153090e-01
-5.877711e-01
4.383405e-02
3.515134e-01
-4.349268e-02
-3.518122e-01
-1.205061e+00
9.111753e-01
1.205061e+00
-9.111753e-01
-9.480946e-01
1.198466e+00
9.480946e-01
-1.198466e+00
-1.667301e+00
2.773009e-01
1.667301e+00
-2.773009e-01
-1.600488e+00
1.600488e+00
1.600488e+00
-1.600488e+00
-9.914229e-01
4.202464e-01
9.914229e-01
-4.202464e-01
-4.164825e-01
9.811319e-01
4.164825e-01
-9.811319e-01
-9.611944e-01
1.602438e+00
9.611944e-01
-1.602438e+00
-1.609339e+00
9.562944e-01
1.609339e+00
-9.562944e-01
-1.562400e+00
-1.522435e-01
1.562400e+00
1.522435e-01
-6.381115e-01
2.736511e-01
6.381115e-01
-2.736511e-01
-2.880435e-01
5.442558e-01
2.880435e-01
-5.442558e-01
-1.395464e+00
-5.628405e-01
1.395464e+00
5.628405e-01
-1.395464e+00
5.628405e-01
1.395464e+00
-5.628405e-01
-1.317989e+00
-1.317989e+00
1.317989e+00
1.317989e+00
-2.733218e-02
1.157056e+00
2.733218e-02
-1.157056e+00
-8.078780e-01
8.745578e-01
8.078780e-01
-8.745578e-01
0.000000e+00
-6.677360e-01
1.125395e+00
6.470016e-01
-1.120413e-01
-1.268374e+00
-2.960080e-01
1.264524e+00
-2.899229e-01
-1.332510e+00
2.393535e-01
1.349612e+00
2.987513e-01
-3.390136e-02
-7.843807e-01
2.994534e-02
6.009149e-01
-1.680114e+00
-1.280407e+00
-1.280407e+00
1.680114e+00
-1.680114e+00
1.280407e+00
1.687361e+00
1.295678e+00
-1.712873e+00
-5.752557e-01
1.711706e+00
-5.765074e-01
-1.734387e+00
5.992871e-01
1.734362e+00
6.091334e-01
-6.097944e-01
-5.845653e-01
5.627052e-01
7.730036e-01
-3.612907e-01
2.272426e-01
-4.612232e-02
1.021534e+00
9.111753e-01
-1.205061e+00
-1.205061e+00
1.183319e+00
-9.480946e-01
-8.837321e-01
1.198466e+00
9.307517e-01
-1.667133e+00
2.773009e-01
1.667005e+00
2.848672e-01
-1.612444e+00
-1.600488e+00
1.600488e+00
1.612444e+00
3.903916e-01
-9.787797e-01
4.153894e-01
-4.263727e-01
-4.164825e-01
9.392925e-01
-9.770085e-01
3.959108e-01
-1.609170e+00
-9.611944e-01
1.602438e+00
-9.612191e-01
-1.609339e+00
9.562944e-01
1.609339e+00
9.649330e-01
-1.561395e+00
-1.522435e-01
1.560627e+00
-1.581388e-01
-5.939447e-01
2.347950e-01
-2.736511e-01
7.521364e-01
-2.691937e-01
-5.442558e-01
5.606272e-01
2.679443e-01
-1.393800e+00
-5.628405e-01
-1.395464e+00
5.628405e-01
1.395464e+00
-5.631789e-01
1.395464e+00
6.141338e-01
-1.317989e+00
1.317989e+00
-1.317989e+00
1.317989e+00
-1.139520e+00
-2.733218e-02
1.103432e+00
-1.200128e-02
-8.078780e-01
8.745578e-01
-8.285714e-01
8.146569e-01
1.169493e-02
2.000000e+00
2.000000e+00
2.000000e+00
2.000000e+00
2.000000e+00
2.000000e+00
2.000000e+00
2.000000e+00
2.000000e+00
2.000000e+00
2.000000e+00
2.000000e+00
2.000000e+00
2.000000e+00
2.000000e+00
2.000000e+00
2.000000e+00
2.000000e+00
2.000000e+00
2.000000e+00
2.000000e+00
2.000000e+00
2.000000e+00
2.000000e+00
2.000000e+00
2.000000e+00
2.000000e+00
2.000000e+00
2.000000e+00
2.000000e+00
2.000000e+00
2.000000e+00
2.000000e+00
2.000000e+00
2.000000e+00
2.000000e+00
2.000000e+00
2.000000e+00
2.000000e+00
2.000000e+00
2.000000e+00
2.000000e+00
2.000000e+00
2.000000e+00
2.000000e+00
2.000000e+00
2.000000e+00
2.000000e+00
2.000000e+00
2.000000e+00
2.000000e+00
2.000000e+00
2.000000e+00
2.000000e+00
2.000000e+00
2.000000e+00
2.000000e+00
2.000000e+00
2.000000e+00
2.000000e+00
2.000000e+00
2.000000e+00
2.000000e+00
2.000000e+00
2.000000e+00
2.000000e+00
2.000000e+00
2.000000e+00
2.000000e+00
2.000000e+00
2.000000e+00
2.000000e+00
2.000000e+00
2.000000e+00
2.000000e+00
2.000000e+00
2.000000e+00
2.000000e+00
2.000000e+00
2.000000e+00
2.000000e+00
2.000000e+00
2.000000e+00
2.000000e+00
2.000000e+00
2.000000e+00
2.000000e+00
2.000000e+00
2.000000e+00
2.000000e+00
2.000000e+00
2.000000e+00
2.000000e+00
2.000000e+00
2.000000e+00
2.000000e+00
2.000000e+00
2.000000e+00
2.000000e+00
2.000000e+00
2.000000e+00
2.000000e+00
2.000000e+00
2.000000e+00
2.000000e+00
6.677360e-01
-1.125395e+00
-6.470016e-01
1.120413e-01
1.268374e+00
2.960080e-01
-1.264524e+00
2.899229e-01
1.332510e+00
-2.393535e-01
-1.349612e+00
-2.987513e-01
3.390136e-02
7.843807e-01
-2.994534e-02
-6.009149e-01
1.680114e+00
1.280407e+00
1.280407e+00
-1.680114e+00
1.680114e+00
-1.280407e+00
-1.687361e+00
-1.295678e+00
1.712873e+00
5.752557e-01
-1.711706e+00
5.765074e-01
1.734387e+00
-5.992871e-01
-1.734362e+00
-6.091334e-01
6.097944e-01
5.845653e-01
-5.627052e-01
-7.730036e-01
3.612907e-01
-2.272426e-01
4.612232e-02
-1.021534e+00
-9.111753e-01
1.205061e+00
1.205061e+00
-1.183319e+00
9.480946e-01
8.837321e-01
-1.198466e+00
-9.307517e-01
1.667133e+00
-2.773009e-01
-1.667005e+00
-2.848672e-01
1.612444e+00
1.600488e+00
-1.600488e+00
-1.612444e+00
-3.903916e-01
9.787797e-01
-4.153894e-01
4.263727e-01
4.164825e-01
-9.392925e-01
9.770085e-01
-3.959108e-01
1.609170e+00
9.611944e-01
-1.602438e+00
9.612191e-01
1.609339e+00
-9.562944e-01
-1.609339e+00
-9.649330e-01
1.561395e+00
1.522435e-01
-1.560627e+00
1.581388e-01
5.939447e-01
-2.347950e-01
2.736511e-01
-7.521364e-01
2.691937e-01
5.442558e-01
-5.606272e-01
-2.679443e-01
1.393800e+00
5.628405e-01
1.395464e+00
-5.628405e-01
-1.395464e+00
5.631789e-01
-1.395464e+00
-6.141338e-01
1.317989e+00
-1.317989e+00
1.317989e+00
-1.317989e+00
1.139520e+00
2.733218e-02
-1.103432e+00
1.200128e-02
8.078780e-01
-8.745578e-01
8.285714e-01
-8.146569e-01
-1.169493e-02
-2.000000e+00
-2.000000e+00
-2.000000e+00
-2.000000e+00
-2.000000e+00
-2.000000e+00
-2.000000e+00
-2.000000e+00
-2.000000e+00
-2.000000e+00
-2.000000e+00
-2.000000e+00
-2.000000e+00
-2.000000e+00
-2.000000e+00
-2.000000e+00
-2.000000e+00
-2.000000e+00
-2.000000e+00
-2.000000e+00
-2.000000e+00
-2.000000e+00
-2.000000e+00
-2.000000e+00
-2.000000e+00
-2.000000e+00
-2.000000e+00
-2.000000e+00
-2.000000e+00
-2.000000e+00
-2.000000e+00
-2.000000e+00
-2.000000e+00
-2.000000e+00
-2.000000e+00
-2.000000e+00
-2.000000e+00
-2.000000e+00
-2.000000e+00
-2.000000e+00
-2.000000e+00
-2.000000e+00
-2.000000e+00
-2.000000e+00
-2.000000e+00
-2.000000e+00
-2.000000e+00
-2.000000e+00
-2.000000e+00
-2.000000e+00
-2.000000e+00
-2.000000e+00
-2.000000e+00
-2.000000e+00
-2.000000e+00
-2.000000e+00
-2.000000e+00
-2.000000e+00
-2.000000e+00
-2.000000e+00
-2.000000e+00
-2.000000e+00
-2.000000e+00
-2.000000e+00
-2.000000e+00
-2.000000e+00
-2.000000e+00
-2.000000e+00
-2.000000e+00
-2.000000e+00
-2.000000e+00
-2.000000e+00
-2.000000e+00
-2.000000e+00
-2.000000e+00
-2.000000e+00
-2.000000e+00
-2.000000e+00
-2.000000e+00
-2.000000e+00
-2.000000e+00
-2.000000e+00
-2.000000e+00
-2.000000e+00
-2.000000e+00
-2.000000e+00
-2.000000e+00
-2.000000e+00
-2.000000e+00
-2.000000e+00
-2.000000e+00
-2.000000e+00
-2.000000e+00
-2.000000e+00
-2.000000e+00
-2.000000e+00
-2.000000e+00
-2.000000e+00
-2.000000e+00
-2.000000e+00
-2.000000e+00
-2.000000e+00
-2.000000e+00
-2.000000e+00
-2.000000e+00
-2.000000e+00
-2.000000e+00
-2.000000e+00
-2.000000e+00
-2.000000e+00
-2.000000e+00
-2.000000e+00
-2.000000e+00
-2.000000e+00
2.000000e+00
2.000000e+00
2.000000e+00
2.000000e+00
2.000000e+00
2.000000e+00
2.000000e+00
2.000000e+00
2.000000e+00
2.000000e+00
2.000000e+00
2.000000e+00
2.000000e+00
2.000000e+00
2.000000e+00
2.000000e+00
2.000000e+00
2.000000e+00
-2.000000e+00
-2.000000e+00
-2.000000e+00
-2.000000e+00
-2.000000e+00
-2.000000e+00
-2.000000e+00
-2.000000e+00
-2.000000e+00
-2.000000e+00
-2.000000e+00
-2.000000e+00
-2.000000e+00
-2.000000e+00
-2.000000e+00
-2.000000e+00
-2.000000e+00
-2.000000e+00
-1.600000e+00
-1.200000e+00
-8.000000e-01
-4.000000e-01
5.504486e-12
4.000000e-01
8.000000e-01
1.200000e+00
2.000000e+00
2.000000e+00
2.000000e+00
2.000000e+00
2.000000e+00
2.000000e+00
2.000000e+00
2.000000e+00
2.000000e+00
1.600000e+00
1.200000e+00
8.000000e-01
4.000000e-01
-5.504486e-12
-4.000000e-01
-8.000000e-01
-1.200000e+00
-1.600000e+00
-2.000000e+00
-2.000000e+00
-2.000000e+00
-2.000000e+00
-2.000000e+00
-2.000000e+00
-2.000000e+00
-2.000000e+00
-2.000000e+00
-1.600000e+00
-1.200000e+00
-8.000000e-01
-4.000000e-01
5.504486e-12
4.000000e-01
8.000000e-01
1.200000e+00
1.600000e+00
2.000000e+00
2.000000e+00
2.000000e+00
2.000000e+00
2.000000e+00
2.000000e+00
2.000000e+00
2.000000e+00
2.000000e+00
1.600000e+00
1.200000e+00
8.000000e-01
4.000000e-01
-5.504486e-12
-4.000000e-01
-8.000000e-01
-1.200000e+00
-1.600000e+00
-2.000000e+00
2.000000e+00
2.000000e+00
-2.000000e+00
-2.000000e+00
2.000000e+00
2.000000e+00
-2.000000e+00
1.600000e+00


SCALARS X1 double
LOOKUP_TABLE default
-6.681413e-01
2.853717e-01
-5.538294e-02
9.351206e-01
-9.456927e-01
-1.565158e+00
7.824769e-01
5.193644e-01
1.137339e+00
1.076950e+00
5.726544e-02
2.635404e-02
1.030935e+00
-1.018549e+00
1.118953e+00
1.145217e+00
2.578083e-01
-1.892646e-01
-4.452790e-01
-7.850942e-01
-1.219030e-01
1.474481e-01
9.543565e-01
1.604708e+00
-1.552969e+00
2.368594e-01
1.596455e+00
-4.643886e-01
-4.929612e-01
-9.470297e-01
-1.543756e+00
-1.578693e+00
3.512609e-01
-9.316059e-01
3.235713e-01
2.652947e-02
-1.520671e+00
-3.659381e-01
-2.131183e-01
2.384534e-01
1.236005e-01
7.828264e-01
1.564013e+00
7.623439e-01
1.093302e+00
1.518226e+00
1.651681e-01
-9.257117e-01
1.415212e+00
-7.786216e-01
-6.069383e-01
-2.274580e-01
-1.600077e+00
-1.151844e+00
1.033635e+00
3.311140e-01
-1.609955e+00
-7.325968e-01
-1.553620e+00
1.605880e+00
-1.456424e+00
-3.597360e-01
-7.869620e-01
9.720200e-01
-4.201875e-01
-1.566808e+00
-1.519024e+00
-2.454398e-01
1.094052e+00
-9.905440e-02
-1.274780e+00
-1.158831e+00
-1.530813e+00
9.479775e-01
2.176829e-01
1.244480e+00
-9.159527e-01
1.089730e+00
1.971621e-01
-1.597275e+00
-1.596884e+00
1.597227e+00
-8.891092e-01
1.028395e+00
1.487910e+00
-1.153570e+00
-1.561615e+00
8.386107e-01
8.833201e-01
-1.004269e+00
-1.003681e+00
8.744124e-02
-1.579166e+00
1.540342e+00
-4.012376e-01
1.527447e+00
-3.364351e-01
1.010809e+00
-2.635226e-01
3.836917e-01
1.287314e+00
6.540467e-01
1.499672e+00
2.041240e-01
2.075078e-01
-2.395284e-01
6.244131e-01
4.048454e-01
1.145813e+00
1.564319e+00
1.029609e+00
-1.130439e+00
6.507558e-01
-1.514419e-01
1.526439e+00
3.485171e-01
8.886225e-01
-1.534539e+00
-3.792943e-01
-8.351536e-01
4.146318e-01
7.706084e-01
-3.421261e-01
-1.508052e+00
-2.782115e-01
-7.764100e-01
-1.647804e-01
1.530358e+00
-1.163577e+00
4.253418e-01
-2.259772e-01
2.590107e-01
-2.226574e-02
-1.527983e+00
-1.537734e+00
1.527977e+00
-7.865981e-01
-7.726857e-01
1.514365e+00
3.258836e-01
-7.783960e-01
-1.368387e-01
-8.343664e-01
-1.547218e+00
7.824111e-01
-1.521812e+00
1.521796e+00
-1.112633e-01
-1.077388e+00
1.099608e+00
3.165193e-01
-3.965053e-01
-2.618349e-01
1.512505e+00
8.591558e-01
-1.507265e+00
-8.597336e-01
-1.493469e+00
4.853796e-01
1.399385e+00
-8.774213e-01
-7.410701e-01
3.042051e-01
1.402096e+00
-1.402097e+00
-1.106110e+00
8.708926e-01
-8.567458e-01
-1.484212e+00
3.852766e-01
3.092414e-01
1.564141e+00
8.226749e-01
2.489271e-01
1.551604e+00
1.342544e-01
7.966523e-01
-2.889258e-01
-1.306421e+00
-7.486616e-01
-9.583066e-03
3.043425e-01
-9.865579e-01
-1.132893e+00
-1.163439e-01
1.513976e+00
8.932371e-01
-1.911641e-01
-2.422223e-01
-9.395715e-02
-1.532974e+00
1.886369e-01
-7.203783e-01
-1.512484e+00
-1.510749e+00
1.512465e+00
-1.495637e+00
-2.014305e-01
-8.982897e-01
-1.481766e+00
8.978963e-01
-9.722890e-01
1.506320e+00
1.548496e+00
1.502295e+00
-8.518366e-01
-3.854088e-01
-3.462699e-01
8.830342e-01
1.746246e-02
6.804606e-01
3.363899e-01
-1.247387e+00
-6.358876e-01
-9.051163e-01
1.509882e+00
-2.194879e-02
8.423400e-01
1.517977e+00
4.080904e-01
-8.078312e-01
-3.005453e-01
6.606850e-01
8.246998e-01
-1.470351e+00
1.438759e+00
1.162504e-01
5.141073e-01
-6.594342e-01
-5.872110e-02
-4.054563e-01
-1.426593e+00
-1.495715e+00
3.870874e-01
-1.557660e-01
1.495629e+00
-1.094946e+00
2.245694e-01
-7.991843e-01
8.193005e-01
-3.252835e-01
1.066167e+00
5.101107e-01
4.947229e-01
-7.745828e-01
-1.118813e-01
1.479006e+00
9.065182e-01
-1.242286e+00
1.413540e+00
-8.898018e-01
-1.415158e+00
7.620530e-02
7.101295e-01
7.465117e-01
-5.023711e-01
-2.368930e-02
6.470825e-01
1.413578e-02
-4.209191e-01
2.696464e-01
-6.387536e-01
-1.463628e+00
1.396154e+00
4.996333e-02
9.784287e-01
-8.661791e-01
-3.161568e-01
-1.160634e-01
-5.043904e-02
1.425621e+00
1.026021e+00
5.958952e-01
1.428158e+00
5.330201e-02
-1.512542e-01
1.362315e+00
-1.426681e+00
-7.515172e-01
-4.366869e-01
1.140688e-01
1.370236e+00
-8.546595e-01
-5.498430e-01
6.872195e-01
-1.349934e+00
6.110036e-01
-1.410295e+00
-5.588965e-01
5.588803e-01
1.397881e+00
-1.370039e+00
-5.375333e-01
1.335948e+00
-1.308777e+00
-1.308753e+00
1.308722e+00
1.076119e+00
5.693313e-01
1.043177e+00
-5.884702e-01
-1.004236e+00
-1.367247e+00
-1.367241e+00
1.367006e+00
1.212447e+00
-5.006062e-01
-1.306793e+00
-4.698183e-01
-1.337505e+00
4.692000e-01
4.200629e-01
-4.200483e-01
1.337391e+00
5.698768e-01
4.218477e-01
-4.932502e-01
-5.339380e-01
-1.269767e+00
1.269653e+00
5.406192e-01
3.776814e-01
3.878361e-01
-1.293945e+00
1.282736e+00
-3.495663e-01
5.201203e-01
-2.503112e-01
-4.848045e-01
4.316639e-01
6.618276e-02
-2.846700e-01
5.478997e-01
-5.464640e-02
-1.217818e+00
-1.146107e+00
1.217770e+00
-1.137302e+00
1.217668e+00
-1.217666e+00
1.137317e+00
5.190289e-01
-4.477718e-01
-5.274251e-01
4.800907e-01
-4.845050e-01
9.363886e-02
1.156964e+00
1.197522e+00
-5.588519e-01
-1.110527e+00